# vtk DataFile Version 3.0
Ihlan
ASCII
DATASET POLYDATA
POINTS 6 float
5 0 0
6.54811 4.7543 0
2.50678 7.69838 0
-1.54392 4.76719 0
-0.0109551 0.00798082 0
0 0 10
POLYGONS 6 26
3 0 1 5
3 1 2 5
3 2 3 5
3 3 4 5
3 4 0 5
5 0 1 2 3 4 
CELL_DATA 6
SCALARS cell_scalars int 1
LOOKUP_TABLE default
0
1
2
3
4
5
NORMALS cell_vectors float
1 0 0
1 0 0
1 0 0
1 0 0
1 0 0
1 0 0
POINT_DATA 6
SCALARS sample_scalars float 1
LOOKUP_TABLE my_table
0.0
1.0
2.0
3.0
4.0
5.0
LOOKUP_TABLE my_table 9
0.0 0.1 0.0 1.0
0.0 0.2 0.0 1.0
0.0 0.3 0.0 1.0
0.0 0.4 0.0 1.0
0.0 0.5 0.0 1.0
0.0 0.6 0.0 1.0
0.0 0.7 0.0 1.0
0.0 0.8 0.0 1.0
0.0 0.9 0.0 1.0
